/*--------------------------------*- C++ -*----------------------------------*\
| =========                 |                                                 |
| \\      /  F ield         | OpenFOAM: The Open Source CFD Toolbox           |
|  \\    /   O peration     | Version:  2412                                  |
|   \\  /    A nd           | Website:  www.openfoam.com                      |
|    \\/     M anipulation  |                                                 |
\*---------------------------------------------------------------------------*/
FoamFile
{
    version     2.0;
    format      ascii;
    arch        "LSB;label=32;scalar=64";
    class       volVectorField;
    location    "0";
    object      U;
}
// * * * * * * * * * * * * * * * * * * * * * * * * * * * * * * * * * * * * * //

dimensions      [0 1 -1 0 0 0 0];

internalField   nonuniform List<vector> 
800
(
(0.00392698 0 0)
(0.0117807 0 0)
(0.0196337 0 0)
(0.0274855 0 0)
(0.0353356 0 0)
(0.0431835 0 0)
(0.0510287 0 0)
(0.0588708 0 0)
(0.0667093 0 0)
(0.0745436 0 0)
(0.0823734 0 0)
(0.090198 0 0)
(0.0980171 0 0)
(0.10583 0 0)
(0.113637 0 0)
(0.121436 0 0)
(0.129228 0 0)
(0.137012 0 0)
(0.144788 0 0)
(0.152555 0 0)
(0.160312 0 0)
(0.168059 0 0)
(0.175796 0 0)
(0.183522 0 0)
(0.191237 0 0)
(0.19894 0 0)
(0.206631 0 0)
(0.214309 0 0)
(0.221974 0 0)
(0.229625 0 0)
(0.237262 0 0)
(0.244884 0 0)
(0.252492 0 0)
(0.260083 0 0)
(0.267659 0 0)
(0.275218 0 0)
(0.28276 0 0)
(0.290285 0 0)
(0.297791 0 0)
(0.30528 0 0)
(0.312749 0 0)
(0.3202 0 0)
(0.32763 0 0)
(0.33504 0 0)
(0.34243 0 0)
(0.349799 0 0)
(0.357146 0 0)
(0.36447 0 0)
(0.371773 0 0)
(0.379052 0 0)
(0.386309 0 0)
(0.393541 0 0)
(0.400749 0 0)
(0.407932 0 0)
(0.41509 0 0)
(0.422223 0 0)
(0.429329 0 0)
(0.436409 0 0)
(0.443462 0 0)
(0.450488 0 0)
(0.457486 0 0)
(0.464456 0 0)
(0.471397 0 0)
(0.478309 0 0)
(0.485191 0 0)
(0.492044 0 0)
(0.498866 0 0)
(0.505657 0 0)
(0.512418 0 0)
(0.519146 0 0)
(0.525843 0 0)
(0.532507 0 0)
(0.539138 0 0)
(0.545736 0 0)
(0.552301 0 0)
(0.558831 0 0)
(0.565327 0 0)
(0.571788 0 0)
(0.578214 0 0)
(0.584604 0 0)
(0.590958 0 0)
(0.597275 0 0)
(0.603556 0 0)
(0.609799 0 0)
(0.616005 0 0)
(0.622173 0 0)
(0.628303 0 0)
(0.634393 0 0)
(0.640445 0 0)
(0.646457 0 0)
(0.652429 0 0)
(0.658361 0 0)
(0.664252 0 0)
(0.670103 0 0)
(0.675912 0 0)
(0.681679 0 0)
(0.687404 0 0)
(0.693087 0 0)
(0.698727 0 0)
(0.704325 0 0)
(0.709878 0 0)
(0.715388 0 0)
(0.720854 0 0)
(0.726275 0 0)
(0.731651 0 0)
(0.736982 0 0)
(0.742268 0 0)
(0.747508 0 0)
(0.752702 0 0)
(0.75785 0 0)
(0.76295 0 0)
(0.768004 0 0)
(0.77301 0 0)
(0.777969 0 0)
(0.78288 0 0)
(0.787742 0 0)
(0.792556 0 0)
(0.797321 0 0)
(0.802036 0 0)
(0.806703 0 0)
(0.811319 0 0)
(0.815885 0 0)
(0.820401 0 0)
(0.824867 0 0)
(0.829281 0 0)
(0.833645 0 0)
(0.837957 0 0)
(0.842217 0 0)
(0.846426 0 0)
(0.850582 0 0)
(0.854685 0 0)
(0.858736 0 0)
(0.862734 0 0)
(0.866679 0 0)
(0.87057 0 0)
(0.874408 0 0)
(0.878192 0 0)
(0.881921 0 0)
(0.885596 0 0)
(0.889217 0 0)
(0.892782 0 0)
(0.896293 0 0)
(0.899748 0 0)
(0.903148 0 0)
(0.906492 0 0)
(0.90978 0 0)
(0.913012 0 0)
(0.916188 0 0)
(0.919307 0 0)
(0.92237 0 0)
(0.925375 0 0)
(0.928324 0 0)
(0.931215 0 0)
(0.934049 0 0)
(0.936825 0 0)
(0.939543 0 0)
(0.942204 0 0)
(0.944806 0 0)
(0.94735 0 0)
(0.949836 0 0)
(0.952263 0 0)
(0.954631 0 0)
(0.95694 0 0)
(0.959191 0 0)
(0.961382 0 0)
(0.963514 0 0)
(0.965586 0 0)
(0.967599 0 0)
(0.969552 0 0)
(0.971446 0 0)
(0.973279 0 0)
(0.975053 0 0)
(0.976766 0 0)
(0.978419 0 0)
(0.980012 0 0)
(0.981544 0 0)
(0.983016 0 0)
(0.984427 0 0)
(0.985777 0 0)
(0.987066 0 0)
(0.988295 0 0)
(0.989463 0 0)
(0.990569 0 0)
(0.991615 0 0)
(0.992599 0 0)
(0.993522 0 0)
(0.994384 0 0)
(0.995185 0 0)
(0.995924 0 0)
(0.996602 0 0)
(0.997218 0 0)
(0.997772 0 0)
(0.998266 0 0)
(0.998697 0 0)
(0.999067 0 0)
(0.999376 0 0)
(0.999622 0 0)
(0.999807 0 0)
(0.999931 0 0)
(0.999992 0 0)
(0.999992 0 0)
(0.999931 0 0)
(0.999807 0 0)
(0.999622 0 0)
(0.999376 0 0)
(0.999067 0 0)
(0.998697 0 0)
(0.998266 0 0)
(0.997772 0 0)
(0.997218 0 0)
(0.996602 0 0)
(0.995924 0 0)
(0.995185 0 0)
(0.994384 0 0)
(0.993522 0 0)
(0.992599 0 0)
(0.991615 0 0)
(0.990569 0 0)
(0.989463 0 0)
(0.988295 0 0)
(0.987066 0 0)
(0.985777 0 0)
(0.984427 0 0)
(0.983016 0 0)
(0.981544 0 0)
(0.980012 0 0)
(0.978419 0 0)
(0.976766 0 0)
(0.975053 0 0)
(0.973279 0 0)
(0.971446 0 0)
(0.969552 0 0)
(0.967599 0 0)
(0.965586 0 0)
(0.963514 0 0)
(0.961382 0 0)
(0.959191 0 0)
(0.95694 0 0)
(0.954631 0 0)
(0.952263 0 0)
(0.949836 0 0)
(0.94735 0 0)
(0.944806 0 0)
(0.942204 0 0)
(0.939543 0 0)
(0.936825 0 0)
(0.934049 0 0)
(0.931215 0 0)
(0.928324 0 0)
(0.925375 0 0)
(0.92237 0 0)
(0.919307 0 0)
(0.916188 0 0)
(0.913012 0 0)
(0.90978 0 0)
(0.906492 0 0)
(0.903148 0 0)
(0.899748 0 0)
(0.896293 0 0)
(0.892782 0 0)
(0.889217 0 0)
(0.885596 0 0)
(0.881921 0 0)
(0.878192 0 0)
(0.874408 0 0)
(0.87057 0 0)
(0.866679 0 0)
(0.862734 0 0)
(0.858736 0 0)
(0.854685 0 0)
(0.850582 0 0)
(0.846426 0 0)
(0.842217 0 0)
(0.837957 0 0)
(0.833645 0 0)
(0.829281 0 0)
(0.824867 0 0)
(0.820401 0 0)
(0.815885 0 0)
(0.811319 0 0)
(0.806703 0 0)
(0.802036 0 0)
(0.797321 0 0)
(0.792556 0 0)
(0.787742 0 0)
(0.78288 0 0)
(0.777969 0 0)
(0.77301 0 0)
(0.768004 0 0)
(0.76295 0 0)
(0.75785 0 0)
(0.752702 0 0)
(0.747508 0 0)
(0.742268 0 0)
(0.736982 0 0)
(0.731651 0 0)
(0.726275 0 0)
(0.720854 0 0)
(0.715388 0 0)
(0.709878 0 0)
(0.704325 0 0)
(0.698727 0 0)
(0.693087 0 0)
(0.687404 0 0)
(0.681679 0 0)
(0.675912 0 0)
(0.670103 0 0)
(0.664252 0 0)
(0.658361 0 0)
(0.652429 0 0)
(0.646457 0 0)
(0.640445 0 0)
(0.634393 0 0)
(0.628303 0 0)
(0.622173 0 0)
(0.616005 0 0)
(0.609799 0 0)
(0.603556 0 0)
(0.597275 0 0)
(0.590958 0 0)
(0.584604 0 0)
(0.578214 0 0)
(0.571788 0 0)
(0.565327 0 0)
(0.558831 0 0)
(0.552301 0 0)
(0.545736 0 0)
(0.539138 0 0)
(0.532507 0 0)
(0.525843 0 0)
(0.519146 0 0)
(0.512418 0 0)
(0.505657 0 0)
(0.498866 0 0)
(0.492044 0 0)
(0.485191 0 0)
(0.478309 0 0)
(0.471397 0 0)
(0.464456 0 0)
(0.457486 0 0)
(0.450488 0 0)
(0.443462 0 0)
(0.436409 0 0)
(0.429329 0 0)
(0.422223 0 0)
(0.41509 0 0)
(0.407932 0 0)
(0.400749 0 0)
(0.393541 0 0)
(0.386309 0 0)
(0.379052 0 0)
(0.371773 0 0)
(0.364471 0 0)
(0.357146 0 0)
(0.349799 0 0)
(0.34243 0 0)
(0.33504 0 0)
(0.32763 0 0)
(0.3202 0 0)
(0.312749 0 0)
(0.30528 0 0)
(0.297791 0 0)
(0.290285 0 0)
(0.28276 0 0)
(0.275218 0 0)
(0.267659 0 0)
(0.260083 0 0)
(0.252492 0 0)
(0.244884 0 0)
(0.237262 0 0)
(0.229625 0 0)
(0.221974 0 0)
(0.214309 0 0)
(0.206631 0 0)
(0.19894 0 0)
(0.191237 0 0)
(0.183522 0 0)
(0.175796 0 0)
(0.168059 0 0)
(0.160312 0 0)
(0.152555 0 0)
(0.144788 0 0)
(0.137012 0 0)
(0.129228 0 0)
(0.121436 0 0)
(0.113637 0 0)
(0.10583 0 0)
(0.0980171 0 0)
(0.090198 0 0)
(0.0823734 0 0)
(0.0745436 0 0)
(0.0667093 0 0)
(0.0588708 0 0)
(0.0510287 0 0)
(0.0431835 0 0)
(0.0353356 0 0)
(0.0274855 0 0)
(0.0196337 0 0)
(0.0117807 0 0)
(0.00392698 0 0)
(-0.00392698 0 0)
(-0.0117807 0 0)
(-0.0196337 0 0)
(-0.0274855 0 0)
(-0.0353356 0 0)
(-0.0431835 0 0)
(-0.0510287 0 0)
(-0.0588708 0 0)
(-0.0667093 0 0)
(-0.0745436 0 0)
(-0.0823734 0 0)
(-0.090198 0 0)
(-0.0980171 0 0)
(-0.10583 0 0)
(-0.113637 0 0)
(-0.121436 0 0)
(-0.129228 0 0)
(-0.137012 0 0)
(-0.144788 0 0)
(-0.152555 0 0)
(-0.160312 0 0)
(-0.168059 0 0)
(-0.175796 0 0)
(-0.183522 0 0)
(-0.191237 0 0)
(-0.19894 0 0)
(-0.206631 0 0)
(-0.214309 0 0)
(-0.221974 0 0)
(-0.229625 0 0)
(-0.237262 0 0)
(-0.244884 0 0)
(-0.252492 0 0)
(-0.260083 0 0)
(-0.267659 0 0)
(-0.275218 0 0)
(-0.28276 0 0)
(-0.290285 0 0)
(-0.297791 0 0)
(-0.30528 0 0)
(-0.312749 0 0)
(-0.3202 0 0)
(-0.32763 0 0)
(-0.33504 0 0)
(-0.34243 0 0)
(-0.349799 0 0)
(-0.357146 0 0)
(-0.36447 0 0)
(-0.371773 0 0)
(-0.379052 0 0)
(-0.386309 0 0)
(-0.393541 0 0)
(-0.400749 0 0)
(-0.407932 0 0)
(-0.41509 0 0)
(-0.422223 0 0)
(-0.429329 0 0)
(-0.436409 0 0)
(-0.443462 0 0)
(-0.450488 0 0)
(-0.457486 0 0)
(-0.464456 0 0)
(-0.471397 0 0)
(-0.478309 0 0)
(-0.485191 0 0)
(-0.492044 0 0)
(-0.498866 0 0)
(-0.505657 0 0)
(-0.512418 0 0)
(-0.519146 0 0)
(-0.525843 0 0)
(-0.532507 0 0)
(-0.539138 0 0)
(-0.545736 0 0)
(-0.552301 0 0)
(-0.558831 0 0)
(-0.565327 0 0)
(-0.571788 0 0)
(-0.578214 0 0)
(-0.584604 0 0)
(-0.590958 0 0)
(-0.597275 0 0)
(-0.603556 0 0)
(-0.609799 0 0)
(-0.616005 0 0)
(-0.622173 0 0)
(-0.628303 0 0)
(-0.634393 0 0)
(-0.640445 0 0)
(-0.646457 0 0)
(-0.652429 0 0)
(-0.658361 0 0)
(-0.664252 0 0)
(-0.670103 0 0)
(-0.675912 0 0)
(-0.681679 0 0)
(-0.687404 0 0)
(-0.693087 0 0)
(-0.698727 0 0)
(-0.704325 0 0)
(-0.709878 0 0)
(-0.715388 0 0)
(-0.720854 0 0)
(-0.726275 0 0)
(-0.731651 0 0)
(-0.736982 0 0)
(-0.742268 0 0)
(-0.747508 0 0)
(-0.752702 0 0)
(-0.75785 0 0)
(-0.76295 0 0)
(-0.768004 0 0)
(-0.77301 0 0)
(-0.777969 0 0)
(-0.78288 0 0)
(-0.787742 0 0)
(-0.792556 0 0)
(-0.797321 0 0)
(-0.802036 0 0)
(-0.806703 0 0)
(-0.811319 0 0)
(-0.815885 0 0)
(-0.820401 0 0)
(-0.824867 0 0)
(-0.829281 0 0)
(-0.833645 0 0)
(-0.837957 0 0)
(-0.842217 0 0)
(-0.846426 0 0)
(-0.850582 0 0)
(-0.854685 0 0)
(-0.858736 0 0)
(-0.862734 0 0)
(-0.866679 0 0)
(-0.87057 0 0)
(-0.874408 0 0)
(-0.878192 0 0)
(-0.881921 0 0)
(-0.885596 0 0)
(-0.889217 0 0)
(-0.892782 0 0)
(-0.896293 0 0)
(-0.899748 0 0)
(-0.903148 0 0)
(-0.906492 0 0)
(-0.90978 0 0)
(-0.913012 0 0)
(-0.916188 0 0)
(-0.919307 0 0)
(-0.92237 0 0)
(-0.925375 0 0)
(-0.928324 0 0)
(-0.931215 0 0)
(-0.934049 0 0)
(-0.936825 0 0)
(-0.939543 0 0)
(-0.942204 0 0)
(-0.944806 0 0)
(-0.94735 0 0)
(-0.949836 0 0)
(-0.952263 0 0)
(-0.954631 0 0)
(-0.95694 0 0)
(-0.959191 0 0)
(-0.961382 0 0)
(-0.963514 0 0)
(-0.965586 0 0)
(-0.967599 0 0)
(-0.969552 0 0)
(-0.971446 0 0)
(-0.973279 0 0)
(-0.975053 0 0)
(-0.976766 0 0)
(-0.978419 0 0)
(-0.980012 0 0)
(-0.981544 0 0)
(-0.983016 0 0)
(-0.984427 0 0)
(-0.985777 0 0)
(-0.987066 0 0)
(-0.988295 0 0)
(-0.989463 0 0)
(-0.990569 0 0)
(-0.991615 0 0)
(-0.992599 0 0)
(-0.993522 0 0)
(-0.994384 0 0)
(-0.995185 0 0)
(-0.995924 0 0)
(-0.996602 0 0)
(-0.997218 0 0)
(-0.997772 0 0)
(-0.998266 0 0)
(-0.998697 0 0)
(-0.999067 0 0)
(-0.999376 0 0)
(-0.999622 0 0)
(-0.999807 0 0)
(-0.999931 0 0)
(-0.999992 0 0)
(-0.999992 0 0)
(-0.999931 0 0)
(-0.999807 0 0)
(-0.999622 0 0)
(-0.999376 0 0)
(-0.999067 0 0)
(-0.998697 0 0)
(-0.998266 0 0)
(-0.997772 0 0)
(-0.997218 0 0)
(-0.996602 0 0)
(-0.995924 0 0)
(-0.995185 0 0)
(-0.994384 0 0)
(-0.993522 0 0)
(-0.992599 0 0)
(-0.991615 0 0)
(-0.990569 0 0)
(-0.989463 0 0)
(-0.988295 0 0)
(-0.987066 0 0)
(-0.985777 0 0)
(-0.984427 0 0)
(-0.983016 0 0)
(-0.981544 0 0)
(-0.980012 0 0)
(-0.978419 0 0)
(-0.976766 0 0)
(-0.975053 0 0)
(-0.973279 0 0)
(-0.971446 0 0)
(-0.969552 0 0)
(-0.967599 0 0)
(-0.965586 0 0)
(-0.963514 0 0)
(-0.961382 0 0)
(-0.959191 0 0)
(-0.95694 0 0)
(-0.954631 0 0)
(-0.952263 0 0)
(-0.949836 0 0)
(-0.94735 0 0)
(-0.944806 0 0)
(-0.942204 0 0)
(-0.939543 0 0)
(-0.936825 0 0)
(-0.934049 0 0)
(-0.931215 0 0)
(-0.928324 0 0)
(-0.925375 0 0)
(-0.92237 0 0)
(-0.919307 0 0)
(-0.916188 0 0)
(-0.913012 0 0)
(-0.90978 0 0)
(-0.906492 0 0)
(-0.903148 0 0)
(-0.899748 0 0)
(-0.896293 0 0)
(-0.892782 0 0)
(-0.889217 0 0)
(-0.885596 0 0)
(-0.881921 0 0)
(-0.878192 0 0)
(-0.874408 0 0)
(-0.87057 0 0)
(-0.866679 0 0)
(-0.862734 0 0)
(-0.858736 0 0)
(-0.854685 0 0)
(-0.850582 0 0)
(-0.846426 0 0)
(-0.842217 0 0)
(-0.837957 0 0)
(-0.833645 0 0)
(-0.829281 0 0)
(-0.824867 0 0)
(-0.820401 0 0)
(-0.815885 0 0)
(-0.811319 0 0)
(-0.806703 0 0)
(-0.802036 0 0)
(-0.797321 0 0)
(-0.792556 0 0)
(-0.787742 0 0)
(-0.78288 0 0)
(-0.777969 0 0)
(-0.77301 0 0)
(-0.768004 0 0)
(-0.76295 0 0)
(-0.75785 0 0)
(-0.752702 0 0)
(-0.747508 0 0)
(-0.742268 0 0)
(-0.736982 0 0)
(-0.731651 0 0)
(-0.726275 0 0)
(-0.720854 0 0)
(-0.715388 0 0)
(-0.709878 0 0)
(-0.704325 0 0)
(-0.698727 0 0)
(-0.693087 0 0)
(-0.687404 0 0)
(-0.681679 0 0)
(-0.675912 0 0)
(-0.670103 0 0)
(-0.664252 0 0)
(-0.658361 0 0)
(-0.652429 0 0)
(-0.646457 0 0)
(-0.640445 0 0)
(-0.634393 0 0)
(-0.628303 0 0)
(-0.622173 0 0)
(-0.616005 0 0)
(-0.609799 0 0)
(-0.603556 0 0)
(-0.597275 0 0)
(-0.590958 0 0)
(-0.584604 0 0)
(-0.578214 0 0)
(-0.571788 0 0)
(-0.565327 0 0)
(-0.558831 0 0)
(-0.552301 0 0)
(-0.545736 0 0)
(-0.539138 0 0)
(-0.532507 0 0)
(-0.525843 0 0)
(-0.519146 0 0)
(-0.512418 0 0)
(-0.505657 0 0)
(-0.498866 0 0)
(-0.492044 0 0)
(-0.485191 0 0)
(-0.478309 0 0)
(-0.471397 0 0)
(-0.464456 0 0)
(-0.457486 0 0)
(-0.450488 0 0)
(-0.443462 0 0)
(-0.436409 0 0)
(-0.429329 0 0)
(-0.422223 0 0)
(-0.41509 0 0)
(-0.407932 0 0)
(-0.400749 0 0)
(-0.393541 0 0)
(-0.386309 0 0)
(-0.379052 0 0)
(-0.371773 0 0)
(-0.364471 0 0)
(-0.357146 0 0)
(-0.349799 0 0)
(-0.34243 0 0)
(-0.33504 0 0)
(-0.32763 0 0)
(-0.3202 0 0)
(-0.312749 0 0)
(-0.30528 0 0)
(-0.297791 0 0)
(-0.290285 0 0)
(-0.28276 0 0)
(-0.275218 0 0)
(-0.267659 0 0)
(-0.260083 0 0)
(-0.252492 0 0)
(-0.244884 0 0)
(-0.237262 0 0)
(-0.229625 0 0)
(-0.221974 0 0)
(-0.214309 0 0)
(-0.206631 0 0)
(-0.19894 0 0)
(-0.191237 0 0)
(-0.183522 0 0)
(-0.175796 0 0)
(-0.168059 0 0)
(-0.160312 0 0)
(-0.152555 0 0)
(-0.144788 0 0)
(-0.137012 0 0)
(-0.129228 0 0)
(-0.121436 0 0)
(-0.113637 0 0)
(-0.10583 0 0)
(-0.0980171 0 0)
(-0.090198 0 0)
(-0.0823734 0 0)
(-0.0745436 0 0)
(-0.0667093 0 0)
(-0.0588708 0 0)
(-0.0510287 0 0)
(-0.0431835 0 0)
(-0.0353356 0 0)
(-0.0274855 0 0)
(-0.0196337 0 0)
(-0.0117807 0 0)
(-0.00392698 0 0)
)
;

boundaryField
{
    left
    {
        type            fixedValue;
        value           uniform (0 0 0);
    }
    right
    {
        type            fixedValue;
        value           uniform (0 0 0);
    }
    frontBackUpDown
    {
        type            empty;
    }
}


// ************************************************************************* //
