/*--------------------------------*- C++ -*----------------------------------*\
| =========                 |                                                 |
| \\      /  F ield         | OpenFOAM: The Open Source CFD Toolbox           |
|  \\    /   O peration     | Version:  2412                                  |
|   \\  /    A nd           | Website:  www.openfoam.com                      |
|    \\/     M anipulation  |                                                 |
\*---------------------------------------------------------------------------*/
FoamFile
{
    version     2.0;
    format      ascii;
    arch        "LSB;label=32;scalar=64";
    class       volVectorField;
    location    "0";
    object      U;
}
// * * * * * * * * * * * * * * * * * * * * * * * * * * * * * * * * * * * * * //

dimensions      [0 1 -1 0 0 0 0];

internalField   nonuniform List<vector> 
8000
(
(0.000392699 0 0)
(0.0011781 0 0)
(0.00196349 0 0)
(0.00274889 0 0)
(0.00353428 0 0)
(0.00431968 0 0)
(0.00510507 0 0)
(0.00589045 0 0)
(0.00667583 0 0)
(0.00746121 0 0)
(0.00824659 0 0)
(0.00903196 0 0)
(0.00981732 0 0)
(0.0106027 0 0)
(0.011388 0 0)
(0.0121734 0 0)
(0.0129587 0 0)
(0.013744 0 0)
(0.0145294 0 0)
(0.0153147 0 0)
(0.0161 0 0)
(0.0168853 0 0)
(0.0176705 0 0)
(0.0184558 0 0)
(0.0192411 0 0)
(0.0200263 0 0)
(0.0208115 0 0)
(0.0215968 0 0)
(0.022382 0 0)
(0.0231672 0 0)
(0.0239524 0 0)
(0.0247375 0 0)
(0.0255227 0 0)
(0.0263078 0 0)
(0.0270929 0 0)
(0.027878 0 0)
(0.0286631 0 0)
(0.0294482 0 0)
(0.0302332 0 0)
(0.0310183 0 0)
(0.0318033 0 0)
(0.0325883 0 0)
(0.0333732 0 0)
(0.0341582 0 0)
(0.0349431 0 0)
(0.035728 0 0)
(0.0365129 0 0)
(0.0372978 0 0)
(0.0380826 0 0)
(0.0388674 0 0)
(0.0396522 0 0)
(0.040437 0 0)
(0.0412217 0 0)
(0.0420064 0 0)
(0.0427911 0 0)
(0.0435758 0 0)
(0.0443604 0 0)
(0.045145 0 0)
(0.0459296 0 0)
(0.0467142 0 0)
(0.0474987 0 0)
(0.0482832 0 0)
(0.0490677 0 0)
(0.0498521 0 0)
(0.0506365 0 0)
(0.0514209 0 0)
(0.0522052 0 0)
(0.0529895 0 0)
(0.0537738 0 0)
(0.0545581 0 0)
(0.0553423 0 0)
(0.0561265 0 0)
(0.0569106 0 0)
(0.0576947 0 0)
(0.0584788 0 0)
(0.0592628 0 0)
(0.0600468 0 0)
(0.0608308 0 0)
(0.0616147 0 0)
(0.0623986 0 0)
(0.0631824 0 0)
(0.0639662 0 0)
(0.06475 0 0)
(0.0655337 0 0)
(0.0663174 0 0)
(0.0671011 0 0)
(0.0678847 0 0)
(0.0686683 0 0)
(0.0694518 0 0)
(0.0702353 0 0)
(0.0710187 0 0)
(0.0718021 0 0)
(0.0725854 0 0)
(0.0733687 0 0)
(0.074152 0 0)
(0.0749352 0 0)
(0.0757184 0 0)
(0.0765015 0 0)
(0.0772846 0 0)
(0.0780676 0 0)
(0.0788506 0 0)
(0.0796335 0 0)
(0.0804164 0 0)
(0.0811992 0 0)
(0.081982 0 0)
(0.0827647 0 0)
(0.0835474 0 0)
(0.08433 0 0)
(0.0851126 0 0)
(0.0858951 0 0)
(0.0866776 0 0)
(0.08746 0 0)
(0.0882424 0 0)
(0.0890247 0 0)
(0.0898069 0 0)
(0.0905891 0 0)
(0.0913713 0 0)
(0.0921534 0 0)
(0.0929354 0 0)
(0.0937173 0 0)
(0.0944993 0 0)
(0.0952811 0 0)
(0.0960629 0 0)
(0.0968446 0 0)
(0.0976263 0 0)
(0.0984079 0 0)
(0.0991895 0 0)
(0.099971 0 0)
(0.100752 0 0)
(0.101534 0 0)
(0.102315 0 0)
(0.103096 0 0)
(0.103878 0 0)
(0.104659 0 0)
(0.10544 0 0)
(0.106221 0 0)
(0.107002 0 0)
(0.107782 0 0)
(0.108563 0 0)
(0.109344 0 0)
(0.110125 0 0)
(0.110905 0 0)
(0.111686 0 0)
(0.112466 0 0)
(0.113247 0 0)
(0.114027 0 0)
(0.114807 0 0)
(0.115587 0 0)
(0.116367 0 0)
(0.117147 0 0)
(0.117927 0 0)
(0.118707 0 0)
(0.119487 0 0)
(0.120267 0 0)
(0.121046 0 0)
(0.121826 0 0)
(0.122606 0 0)
(0.123385 0 0)
(0.124164 0 0)
(0.124944 0 0)
(0.125723 0 0)
(0.126502 0 0)
(0.127281 0 0)
(0.12806 0 0)
(0.128839 0 0)
(0.129618 0 0)
(0.130396 0 0)
(0.131175 0 0)
(0.131954 0 0)
(0.132732 0 0)
(0.133511 0 0)
(0.134289 0 0)
(0.135067 0 0)
(0.135845 0 0)
(0.136623 0 0)
(0.137401 0 0)
(0.138179 0 0)
(0.138957 0 0)
(0.139735 0 0)
(0.140512 0 0)
(0.14129 0 0)
(0.142067 0 0)
(0.142845 0 0)
(0.143622 0 0)
(0.144399 0 0)
(0.145176 0 0)
(0.145954 0 0)
(0.14673 0 0)
(0.147507 0 0)
(0.148284 0 0)
(0.149061 0 0)
(0.149837 0 0)
(0.150614 0 0)
(0.15139 0 0)
(0.152167 0 0)
(0.152943 0 0)
(0.153719 0 0)
(0.154495 0 0)
(0.155271 0 0)
(0.156047 0 0)
(0.156822 0 0)
(0.157598 0 0)
(0.158373 0 0)
(0.159149 0 0)
(0.159924 0 0)
(0.160699 0 0)
(0.161475 0 0)
(0.16225 0 0)
(0.163025 0 0)
(0.163799 0 0)
(0.164574 0 0)
(0.165349 0 0)
(0.166123 0 0)
(0.166898 0 0)
(0.167672 0 0)
(0.168446 0 0)
(0.16922 0 0)
(0.169995 0 0)
(0.170768 0 0)
(0.171542 0 0)
(0.172316 0 0)
(0.17309 0 0)
(0.173863 0 0)
(0.174636 0 0)
(0.17541 0 0)
(0.176183 0 0)
(0.176956 0 0)
(0.177729 0 0)
(0.178502 0 0)
(0.179274 0 0)
(0.180047 0 0)
(0.18082 0 0)
(0.181592 0 0)
(0.182364 0 0)
(0.183136 0 0)
(0.183908 0 0)
(0.18468 0 0)
(0.185452 0 0)
(0.186224 0 0)
(0.186996 0 0)
(0.187767 0 0)
(0.188538 0 0)
(0.18931 0 0)
(0.190081 0 0)
(0.190852 0 0)
(0.191623 0 0)
(0.192394 0 0)
(0.193164 0 0)
(0.193935 0 0)
(0.194705 0 0)
(0.195475 0 0)
(0.196246 0 0)
(0.197016 0 0)
(0.197786 0 0)
(0.198555 0 0)
(0.199325 0 0)
(0.200095 0 0)
(0.200864 0 0)
(0.201634 0 0)
(0.202403 0 0)
(0.203172 0 0)
(0.203941 0 0)
(0.20471 0 0)
(0.205478 0 0)
(0.206247 0 0)
(0.207015 0 0)
(0.207784 0 0)
(0.208552 0 0)
(0.20932 0 0)
(0.210088 0 0)
(0.210856 0 0)
(0.211623 0 0)
(0.212391 0 0)
(0.213158 0 0)
(0.213926 0 0)
(0.214693 0 0)
(0.21546 0 0)
(0.216227 0 0)
(0.216993 0 0)
(0.21776 0 0)
(0.218526 0 0)
(0.219293 0 0)
(0.220059 0 0)
(0.220825 0 0)
(0.221591 0 0)
(0.222357 0 0)
(0.223123 0 0)
(0.223888 0 0)
(0.224653 0 0)
(0.225419 0 0)
(0.226184 0 0)
(0.226949 0 0)
(0.227714 0 0)
(0.228478 0 0)
(0.229243 0 0)
(0.230007 0 0)
(0.230772 0 0)
(0.231536 0 0)
(0.2323 0 0)
(0.233063 0 0)
(0.233827 0 0)
(0.234591 0 0)
(0.235354 0 0)
(0.236117 0 0)
(0.236881 0 0)
(0.237644 0 0)
(0.238406 0 0)
(0.239169 0 0)
(0.239932 0 0)
(0.240694 0 0)
(0.241456 0 0)
(0.242218 0 0)
(0.24298 0 0)
(0.243742 0 0)
(0.244504 0 0)
(0.245265 0 0)
(0.246026 0 0)
(0.246788 0 0)
(0.247549 0 0)
(0.24831 0 0)
(0.24907 0 0)
(0.249831 0 0)
(0.250591 0 0)
(0.251351 0 0)
(0.252112 0 0)
(0.252872 0 0)
(0.253631 0 0)
(0.254391 0 0)
(0.25515 0 0)
(0.25591 0 0)
(0.256669 0 0)
(0.257428 0 0)
(0.258187 0 0)
(0.258945 0 0)
(0.259704 0 0)
(0.260462 0 0)
(0.261221 0 0)
(0.261979 0 0)
(0.262737 0 0)
(0.263494 0 0)
(0.264252 0 0)
(0.265009 0 0)
(0.265766 0 0)
(0.266524 0 0)
(0.26728 0 0)
(0.268037 0 0)
(0.268794 0 0)
(0.26955 0 0)
(0.270306 0 0)
(0.271062 0 0)
(0.271818 0 0)
(0.272574 0 0)
(0.27333 0 0)
(0.274085 0 0)
(0.27484 0 0)
(0.275595 0 0)
(0.27635 0 0)
(0.277105 0 0)
(0.27786 0 0)
(0.278614 0 0)
(0.279368 0 0)
(0.280122 0 0)
(0.280876 0 0)
(0.28163 0 0)
(0.282383 0 0)
(0.283137 0 0)
(0.28389 0 0)
(0.284643 0 0)
(0.285396 0 0)
(0.286148 0 0)
(0.286901 0 0)
(0.287653 0 0)
(0.288405 0 0)
(0.289157 0 0)
(0.289909 0 0)
(0.29066 0 0)
(0.291412 0 0)
(0.292163 0 0)
(0.292914 0 0)
(0.293665 0 0)
(0.294416 0 0)
(0.295166 0 0)
(0.295916 0 0)
(0.296667 0 0)
(0.297417 0 0)
(0.298166 0 0)
(0.298916 0 0)
(0.299665 0 0)
(0.300414 0 0)
(0.301164 0 0)
(0.301912 0 0)
(0.302661 0 0)
(0.303409 0 0)
(0.304158 0 0)
(0.304906 0 0)
(0.305654 0 0)
(0.306401 0 0)
(0.307149 0 0)
(0.307896 0 0)
(0.308643 0 0)
(0.30939 0 0)
(0.310137 0 0)
(0.310884 0 0)
(0.31163 0 0)
(0.312376 0 0)
(0.313122 0 0)
(0.313868 0 0)
(0.314614 0 0)
(0.315359 0 0)
(0.316104 0 0)
(0.316849 0 0)
(0.317594 0 0)
(0.318339 0 0)
(0.319083 0 0)
(0.319828 0 0)
(0.320572 0 0)
(0.321316 0 0)
(0.322059 0 0)
(0.322803 0 0)
(0.323546 0 0)
(0.324289 0 0)
(0.325032 0 0)
(0.325774 0 0)
(0.326517 0 0)
(0.327259 0 0)
(0.328001 0 0)
(0.328743 0 0)
(0.329485 0 0)
(0.330226 0 0)
(0.330967 0 0)
(0.331708 0 0)
(0.332449 0 0)
(0.33319 0 0)
(0.33393 0 0)
(0.33467 0 0)
(0.33541 0 0)
(0.33615 0 0)
(0.33689 0 0)
(0.337629 0 0)
(0.338368 0 0)
(0.339107 0 0)
(0.339846 0 0)
(0.340585 0 0)
(0.341323 0 0)
(0.342061 0 0)
(0.342799 0 0)
(0.343537 0 0)
(0.344274 0 0)
(0.345012 0 0)
(0.345749 0 0)
(0.346485 0 0)
(0.347222 0 0)
(0.347959 0 0)
(0.348695 0 0)
(0.349431 0 0)
(0.350167 0 0)
(0.350902 0 0)
(0.351637 0 0)
(0.352373 0 0)
(0.353107 0 0)
(0.353842 0 0)
(0.354577 0 0)
(0.355311 0 0)
(0.356045 0 0)
(0.356779 0 0)
(0.357512 0 0)
(0.358246 0 0)
(0.358979 0 0)
(0.359712 0 0)
(0.360445 0 0)
(0.361177 0 0)
(0.361909 0 0)
(0.362641 0 0)
(0.363373 0 0)
(0.364105 0 0)
(0.364836 0 0)
(0.365567 0 0)
(0.366298 0 0)
(0.367029 0 0)
(0.367759 0 0)
(0.36849 0 0)
(0.36922 0 0)
(0.369949 0 0)
(0.370679 0 0)
(0.371408 0 0)
(0.372137 0 0)
(0.372866 0 0)
(0.373595 0 0)
(0.374323 0 0)
(0.375052 0 0)
(0.37578 0 0)
(0.376507 0 0)
(0.377235 0 0)
(0.377962 0 0)
(0.378689 0 0)
(0.379416 0 0)
(0.380142 0 0)
(0.380869 0 0)
(0.381595 0 0)
(0.382321 0 0)
(0.383046 0 0)
(0.383772 0 0)
(0.384497 0 0)
(0.385222 0 0)
(0.385946 0 0)
(0.386671 0 0)
(0.387395 0 0)
(0.388119 0 0)
(0.388843 0 0)
(0.389566 0 0)
(0.390289 0 0)
(0.391012 0 0)
(0.391735 0 0)
(0.392458 0 0)
(0.39318 0 0)
(0.393902 0 0)
(0.394624 0 0)
(0.395345 0 0)
(0.396066 0 0)
(0.396787 0 0)
(0.397508 0 0)
(0.398229 0 0)
(0.398949 0 0)
(0.399669 0 0)
(0.400389 0 0)
(0.401109 0 0)
(0.401828 0 0)
(0.402547 0 0)
(0.403266 0 0)
(0.403984 0 0)
(0.404703 0 0)
(0.405421 0 0)
(0.406139 0 0)
(0.406856 0 0)
(0.407574 0 0)
(0.408291 0 0)
(0.409007 0 0)
(0.409724 0 0)
(0.41044 0 0)
(0.411156 0 0)
(0.411872 0 0)
(0.412588 0 0)
(0.413303 0 0)
(0.414018 0 0)
(0.414733 0 0)
(0.415447 0 0)
(0.416162 0 0)
(0.416876 0 0)
(0.41759 0 0)
(0.418303 0 0)
(0.419016 0 0)
(0.419729 0 0)
(0.420442 0 0)
(0.421155 0 0)
(0.421867 0 0)
(0.422579 0 0)
(0.42329 0 0)
(0.424002 0 0)
(0.424713 0 0)
(0.425424 0 0)
(0.426135 0 0)
(0.426845 0 0)
(0.427555 0 0)
(0.428265 0 0)
(0.428975 0 0)
(0.429684 0 0)
(0.430393 0 0)
(0.431102 0 0)
(0.43181 0 0)
(0.432519 0 0)
(0.433227 0 0)
(0.433934 0 0)
(0.434642 0 0)
(0.435349 0 0)
(0.436056 0 0)
(0.436763 0 0)
(0.437469 0 0)
(0.438175 0 0)
(0.438881 0 0)
(0.439586 0 0)
(0.440292 0 0)
(0.440997 0 0)
(0.441702 0 0)
(0.442406 0 0)
(0.44311 0 0)
(0.443814 0 0)
(0.444518 0 0)
(0.445221 0 0)
(0.445924 0 0)
(0.446627 0 0)
(0.44733 0 0)
(0.448032 0 0)
(0.448734 0 0)
(0.449436 0 0)
(0.450137 0 0)
(0.450839 0 0)
(0.45154 0 0)
(0.45224 0 0)
(0.45294 0 0)
(0.453641 0 0)
(0.45434 0 0)
(0.45504 0 0)
(0.455739 0 0)
(0.456438 0 0)
(0.457137 0 0)
(0.457835 0 0)
(0.458533 0 0)
(0.459231 0 0)
(0.459929 0 0)
(0.460626 0 0)
(0.461323 0 0)
(0.46202 0 0)
(0.462716 0 0)
(0.463412 0 0)
(0.464108 0 0)
(0.464803 0 0)
(0.465499 0 0)
(0.466194 0 0)
(0.466888 0 0)
(0.467583 0 0)
(0.468277 0 0)
(0.468971 0 0)
(0.469664 0 0)
(0.470357 0 0)
(0.47105 0 0)
(0.471743 0 0)
(0.472435 0 0)
(0.473127 0 0)
(0.473819 0 0)
(0.474511 0 0)
(0.475202 0 0)
(0.475893 0 0)
(0.476583 0 0)
(0.477274 0 0)
(0.477964 0 0)
(0.478654 0 0)
(0.479343 0 0)
(0.480032 0 0)
(0.480721 0 0)
(0.48141 0 0)
(0.482098 0 0)
(0.482786 0 0)
(0.483473 0 0)
(0.484161 0 0)
(0.484848 0 0)
(0.485535 0 0)
(0.486221 0 0)
(0.486907 0 0)
(0.487593 0 0)
(0.488279 0 0)
(0.488964 0 0)
(0.489649 0 0)
(0.490333 0 0)
(0.491018 0 0)
(0.491702 0 0)
(0.492386 0 0)
(0.493069 0 0)
(0.493752 0 0)
(0.494435 0 0)
(0.495118 0 0)
(0.4958 0 0)
(0.496482 0 0)
(0.497163 0 0)
(0.497845 0 0)
(0.498526 0 0)
(0.499206 0 0)
(0.499887 0 0)
(0.500567 0 0)
(0.501246 0 0)
(0.501926 0 0)
(0.502605 0 0)
(0.503284 0 0)
(0.503962 0 0)
(0.504641 0 0)
(0.505319 0 0)
(0.505996 0 0)
(0.506673 0 0)
(0.50735 0 0)
(0.508027 0 0)
(0.508703 0 0)
(0.509379 0 0)
(0.510055 0 0)
(0.51073 0 0)
(0.511406 0 0)
(0.51208 0 0)
(0.512755 0 0)
(0.513429 0 0)
(0.514103 0 0)
(0.514776 0 0)
(0.515449 0 0)
(0.516122 0 0)
(0.516795 0 0)
(0.517467 0 0)
(0.518139 0 0)
(0.518811 0 0)
(0.519482 0 0)
(0.520153 0 0)
(0.520823 0 0)
(0.521494 0 0)
(0.522164 0 0)
(0.522833 0 0)
(0.523503 0 0)
(0.524172 0 0)
(0.52484 0 0)
(0.525509 0 0)
(0.526177 0 0)
(0.526845 0 0)
(0.527512 0 0)
(0.528179 0 0)
(0.528846 0 0)
(0.529512 0 0)
(0.530178 0 0)
(0.530844 0 0)
(0.531509 0 0)
(0.532175 0 0)
(0.532839 0 0)
(0.533504 0 0)
(0.534168 0 0)
(0.534832 0 0)
(0.535495 0 0)
(0.536158 0 0)
(0.536821 0 0)
(0.537484 0 0)
(0.538146 0 0)
(0.538808 0 0)
(0.539469 0 0)
(0.54013 0 0)
(0.540791 0 0)
(0.541451 0 0)
(0.542112 0 0)
(0.542771 0 0)
(0.543431 0 0)
(0.54409 0 0)
(0.544749 0 0)
(0.545407 0 0)
(0.546065 0 0)
(0.546723 0 0)
(0.547381 0 0)
(0.548038 0 0)
(0.548695 0 0)
(0.549351 0 0)
(0.550007 0 0)
(0.550663 0 0)
(0.551318 0 0)
(0.551973 0 0)
(0.552628 0 0)
(0.553283 0 0)
(0.553937 0 0)
(0.55459 0 0)
(0.555244 0 0)
(0.555897 0 0)
(0.556549 0 0)
(0.557202 0 0)
(0.557854 0 0)
(0.558505 0 0)
(0.559157 0 0)
(0.559808 0 0)
(0.560458 0 0)
(0.561109 0 0)
(0.561759 0 0)
(0.562408 0 0)
(0.563057 0 0)
(0.563706 0 0)
(0.564355 0 0)
(0.565003 0 0)
(0.565651 0 0)
(0.566298 0 0)
(0.566946 0 0)
(0.567592 0 0)
(0.568239 0 0)
(0.568885 0 0)
(0.569531 0 0)
(0.570176 0 0)
(0.570821 0 0)
(0.571466 0 0)
(0.57211 0 0)
(0.572754 0 0)
(0.573398 0 0)
(0.574041 0 0)
(0.574684 0 0)
(0.575326 0 0)
(0.575969 0 0)
(0.576611 0 0)
(0.577252 0 0)
(0.577893 0 0)
(0.578534 0 0)
(0.579174 0 0)
(0.579815 0 0)
(0.580454 0 0)
(0.581094 0 0)
(0.581733 0 0)
(0.582371 0 0)
(0.58301 0 0)
(0.583648 0 0)
(0.584285 0 0)
(0.584922 0 0)
(0.585559 0 0)
(0.586196 0 0)
(0.586832 0 0)
(0.587468 0 0)
(0.588103 0 0)
(0.588738 0 0)
(0.589373 0 0)
(0.590007 0 0)
(0.590641 0 0)
(0.591274 0 0)
(0.591908 0 0)
(0.592541 0 0)
(0.593173 0 0)
(0.593805 0 0)
(0.594437 0 0)
(0.595068 0 0)
(0.595699 0 0)
(0.59633 0 0)
(0.59696 0 0)
(0.59759 0 0)
(0.59822 0 0)
(0.598849 0 0)
(0.599478 0 0)
(0.600106 0 0)
(0.600734 0 0)
(0.601362 0 0)
(0.601989 0 0)
(0.602616 0 0)
(0.603243 0 0)
(0.603869 0 0)
(0.604495 0 0)
(0.60512 0 0)
(0.605745 0 0)
(0.60637 0 0)
(0.606994 0 0)
(0.607618 0 0)
(0.608242 0 0)
(0.608865 0 0)
(0.609488 0 0)
(0.610111 0 0)
(0.610733 0 0)
(0.611354 0 0)
(0.611976 0 0)
(0.612597 0 0)
(0.613217 0 0)
(0.613838 0 0)
(0.614457 0 0)
(0.615077 0 0)
(0.615696 0 0)
(0.616315 0 0)
(0.616933 0 0)
(0.617551 0 0)
(0.618168 0 0)
(0.618786 0 0)
(0.619402 0 0)
(0.620019 0 0)
(0.620635 0 0)
(0.62125 0 0)
(0.621866 0 0)
(0.62248 0 0)
(0.623095 0 0)
(0.623709 0 0)
(0.624323 0 0)
(0.624936 0 0)
(0.625549 0 0)
(0.626162 0 0)
(0.626774 0 0)
(0.627386 0 0)
(0.627997 0 0)
(0.628608 0 0)
(0.629219 0 0)
(0.629829 0 0)
(0.630439 0 0)
(0.631048 0 0)
(0.631657 0 0)
(0.632266 0 0)
(0.632874 0 0)
(0.633482 0 0)
(0.63409 0 0)
(0.634697 0 0)
(0.635304 0 0)
(0.63591 0 0)
(0.636516 0 0)
(0.637121 0 0)
(0.637727 0 0)
(0.638331 0 0)
(0.638936 0 0)
(0.63954 0 0)
(0.640143 0 0)
(0.640746 0 0)
(0.641349 0 0)
(0.641952 0 0)
(0.642554 0 0)
(0.643155 0 0)
(0.643756 0 0)
(0.644357 0 0)
(0.644958 0 0)
(0.645558 0 0)
(0.646157 0 0)
(0.646757 0 0)
(0.647355 0 0)
(0.647954 0 0)
(0.648552 0 0)
(0.649149 0 0)
(0.649747 0 0)
(0.650343 0 0)
(0.65094 0 0)
(0.651536 0 0)
(0.652131 0 0)
(0.652727 0 0)
(0.653322 0 0)
(0.653916 0 0)
(0.65451 0 0)
(0.655104 0 0)
(0.655697 0 0)
(0.65629 0 0)
(0.656882 0 0)
(0.657474 0 0)
(0.658065 0 0)
(0.658657 0 0)
(0.659247 0 0)
(0.659838 0 0)
(0.660428 0 0)
(0.661017 0 0)
(0.661606 0 0)
(0.662195 0 0)
(0.662783 0 0)
(0.663371 0 0)
(0.663959 0 0)
(0.664546 0 0)
(0.665133 0 0)
(0.665719 0 0)
(0.666305 0 0)
(0.66689 0 0)
(0.667475 0 0)
(0.66806 0 0)
(0.668644 0 0)
(0.669228 0 0)
(0.669811 0 0)
(0.670394 0 0)
(0.670977 0 0)
(0.671559 0 0)
(0.672141 0 0)
(0.672722 0 0)
(0.673303 0 0)
(0.673883 0 0)
(0.674463 0 0)
(0.675043 0 0)
(0.675622 0 0)
(0.676201 0 0)
(0.67678 0 0)
(0.677358 0 0)
(0.677935 0 0)
(0.678512 0 0)
(0.679089 0 0)
(0.679665 0 0)
(0.680241 0 0)
(0.680817 0 0)
(0.681392 0 0)
(0.681966 0 0)
(0.682541 0 0)
(0.683114 0 0)
(0.683688 0 0)
(0.684261 0 0)
(0.684833 0 0)
(0.685405 0 0)
(0.685977 0 0)
(0.686548 0 0)
(0.687119 0 0)
(0.68769 0 0)
(0.68826 0 0)
(0.688829 0 0)
(0.689398 0 0)
(0.689967 0 0)
(0.690535 0 0)
(0.691103 0 0)
(0.691671 0 0)
(0.692238 0 0)
(0.692804 0 0)
(0.69337 0 0)
(0.693936 0 0)
(0.694501 0 0)
(0.695066 0 0)
(0.695631 0 0)
(0.696195 0 0)
(0.696758 0 0)
(0.697321 0 0)
(0.697884 0 0)
(0.698447 0 0)
(0.699008 0 0)
(0.69957 0 0)
(0.700131 0 0)
(0.700691 0 0)
(0.701252 0 0)
(0.701811 0 0)
(0.70237 0 0)
(0.702929 0 0)
(0.703488 0 0)
(0.704046 0 0)
(0.704603 0 0)
(0.70516 0 0)
(0.705717 0 0)
(0.706273 0 0)
(0.706829 0 0)
(0.707384 0 0)
(0.707939 0 0)
(0.708494 0 0)
(0.709048 0 0)
(0.709601 0 0)
(0.710155 0 0)
(0.710707 0 0)
(0.71126 0 0)
(0.711812 0 0)
(0.712363 0 0)
(0.712914 0 0)
(0.713464 0 0)
(0.714015 0 0)
(0.714564 0 0)
(0.715113 0 0)
(0.715662 0 0)
(0.716211 0 0)
(0.716758 0 0)
(0.717306 0 0)
(0.717853 0 0)
(0.7184 0 0)
(0.718946 0 0)
(0.719491 0 0)
(0.720037 0 0)
(0.720581 0 0)
(0.721126 0 0)
(0.72167 0 0)
(0.722213 0 0)
(0.722756 0 0)
(0.723299 0 0)
(0.723841 0 0)
(0.724382 0 0)
(0.724924 0 0)
(0.725464 0 0)
(0.726005 0 0)
(0.726545 0 0)
(0.727084 0 0)
(0.727623 0 0)
(0.728162 0 0)
(0.7287 0 0)
(0.729237 0 0)
(0.729775 0 0)
(0.730311 0 0)
(0.730848 0 0)
(0.731383 0 0)
(0.731919 0 0)
(0.732454 0 0)
(0.732988 0 0)
(0.733522 0 0)
(0.734056 0 0)
(0.734589 0 0)
(0.735122 0 0)
(0.735654 0 0)
(0.736186 0 0)
(0.736717 0 0)
(0.737248 0 0)
(0.737778 0 0)
(0.738308 0 0)
(0.738838 0 0)
(0.739367 0 0)
(0.739895 0 0)
(0.740423 0 0)
(0.740951 0 0)
(0.741478 0 0)
(0.742005 0 0)
(0.742531 0 0)
(0.743057 0 0)
(0.743583 0 0)
(0.744108 0 0)
(0.744632 0 0)
(0.745156 0 0)
(0.74568 0 0)
(0.746203 0 0)
(0.746725 0 0)
(0.747247 0 0)
(0.747769 0 0)
(0.74829 0 0)
(0.748811 0 0)
(0.749331 0 0)
(0.749851 0 0)
(0.750371 0 0)
(0.75089 0 0)
(0.751408 0 0)
(0.751926 0 0)
(0.752444 0 0)
(0.752961 0 0)
(0.753477 0 0)
(0.753993 0 0)
(0.754509 0 0)
(0.755024 0 0)
(0.755539 0 0)
(0.756053 0 0)
(0.756567 0 0)
(0.757081 0 0)
(0.757593 0 0)
(0.758106 0 0)
(0.758618 0 0)
(0.759129 0 0)
(0.75964 0 0)
(0.760151 0 0)
(0.760661 0 0)
(0.761171 0 0)
(0.76168 0 0)
(0.762188 0 0)
(0.762697 0 0)
(0.763204 0 0)
(0.763712 0 0)
(0.764218 0 0)
(0.764725 0 0)
(0.76523 0 0)
(0.765736 0 0)
(0.766241 0 0)
(0.766745 0 0)
(0.767249 0 0)
(0.767753 0 0)
(0.768256 0 0)
(0.768758 0 0)
(0.76926 0 0)
(0.769762 0 0)
(0.770263 0 0)
(0.770763 0 0)
(0.771264 0 0)
(0.771763 0 0)
(0.772263 0 0)
(0.772761 0 0)
(0.77326 0 0)
(0.773757 0 0)
(0.774255 0 0)
(0.774751 0 0)
(0.775248 0 0)
(0.775744 0 0)
(0.776239 0 0)
(0.776734 0 0)
(0.777228 0 0)
(0.777722 0 0)
(0.778216 0 0)
(0.778709 0 0)
(0.779201 0 0)
(0.779693 0 0)
(0.780185 0 0)
(0.780676 0 0)
(0.781166 0 0)
(0.781657 0 0)
(0.782146 0 0)
(0.782635 0 0)
(0.783124 0 0)
(0.783612 0 0)
(0.7841 0 0)
(0.784587 0 0)
(0.785074 0 0)
(0.78556 0 0)
(0.786046 0 0)
(0.786531 0 0)
(0.787016 0 0)
(0.7875 0 0)
(0.787984 0 0)
(0.788467 0 0)
(0.78895 0 0)
(0.789432 0 0)
(0.789914 0 0)
(0.790396 0 0)
(0.790877 0 0)
(0.791357 0 0)
(0.791837 0 0)
(0.792316 0 0)
(0.792795 0 0)
(0.793274 0 0)
(0.793752 0 0)
(0.794229 0 0)
(0.794706 0 0)
(0.795183 0 0)
(0.795659 0 0)
(0.796134 0 0)
(0.796609 0 0)
(0.797084 0 0)
(0.797558 0 0)
(0.798031 0 0)
(0.798504 0 0)
(0.798977 0 0)
(0.799449 0 0)
(0.79992 0 0)
(0.800391 0 0)
(0.800862 0 0)
(0.801332 0 0)
(0.801802 0 0)
(0.802271 0 0)
(0.802739 0 0)
(0.803208 0 0)
(0.803675 0 0)
(0.804142 0 0)
(0.804609 0 0)
(0.805075 0 0)
(0.805541 0 0)
(0.806006 0 0)
(0.80647 0 0)
(0.806935 0 0)
(0.807398 0 0)
(0.807861 0 0)
(0.808324 0 0)
(0.808786 0 0)
(0.809248 0 0)
(0.809709 0 0)
(0.81017 0 0)
(0.81063 0 0)
(0.811089 0 0)
(0.811548 0 0)
(0.812007 0 0)
(0.812465 0 0)
(0.812923 0 0)
(0.81338 0 0)
(0.813837 0 0)
(0.814293 0 0)
(0.814748 0 0)
(0.815204 0 0)
(0.815658 0 0)
(0.816112 0 0)
(0.816566 0 0)
(0.817019 0 0)
(0.817472 0 0)
(0.817924 0 0)
(0.818375 0 0)
(0.818827 0 0)
(0.819277 0 0)
(0.819727 0 0)
(0.820177 0 0)
(0.820626 0 0)
(0.821074 0 0)
(0.821523 0 0)
(0.82197 0 0)
(0.822417 0 0)
(0.822864 0 0)
(0.82331 0 0)
(0.823755 0 0)
(0.8242 0 0)
(0.824645 0 0)
(0.825089 0 0)
(0.825532 0 0)
(0.825975 0 0)
(0.826418 0 0)
(0.82686 0 0)
(0.827301 0 0)
(0.827742 0 0)
(0.828183 0 0)
(0.828623 0 0)
(0.829062 0 0)
(0.829501 0 0)
(0.829939 0 0)
(0.830377 0 0)
(0.830815 0 0)
(0.831251 0 0)
(0.831688 0 0)
(0.832124 0 0)
(0.832559 0 0)
(0.832994 0 0)
(0.833428 0 0)
(0.833862 0 0)
(0.834295 0 0)
(0.834728 0 0)
(0.83516 0 0)
(0.835592 0 0)
(0.836023 0 0)
(0.836454 0 0)
(0.836884 0 0)
(0.837313 0 0)
(0.837743 0 0)
(0.838171 0 0)
(0.838599 0 0)
(0.839027 0 0)
(0.839454 0 0)
(0.83988 0 0)
(0.840307 0 0)
(0.840732 0 0)
(0.841157 0 0)
(0.841581 0 0)
(0.842005 0 0)
(0.842429 0 0)
(0.842852 0 0)
(0.843274 0 0)
(0.843696 0 0)
(0.844117 0 0)
(0.844538 0 0)
(0.844959 0 0)
(0.845378 0 0)
(0.845798 0 0)
(0.846216 0 0)
(0.846635 0 0)
(0.847052 0 0)
(0.84747 0 0)
(0.847886 0 0)
(0.848302 0 0)
(0.848718 0 0)
(0.849133 0 0)
(0.849548 0 0)
(0.849962 0 0)
(0.850375 0 0)
(0.850788 0 0)
(0.851201 0 0)
(0.851613 0 0)
(0.852024 0 0)
(0.852435 0 0)
(0.852845 0 0)
(0.853255 0 0)
(0.853664 0 0)
(0.854073 0 0)
(0.854481 0 0)
(0.854889 0 0)
(0.855296 0 0)
(0.855703 0 0)
(0.856109 0 0)
(0.856515 0 0)
(0.85692 0 0)
(0.857325 0 0)
(0.857729 0 0)
(0.858132 0 0)
(0.858535 0 0)
(0.858938 0 0)
(0.859339 0 0)
(0.859741 0 0)
(0.860142 0 0)
(0.860542 0 0)
(0.860942 0 0)
(0.861341 0 0)
(0.86174 0 0)
(0.862138 0 0)
(0.862536 0 0)
(0.862933 0 0)
(0.86333 0 0)
(0.863726 0 0)
(0.864121 0 0)
(0.864516 0 0)
(0.864911 0 0)
(0.865305 0 0)
(0.865698 0 0)
(0.866091 0 0)
(0.866483 0 0)
(0.866875 0 0)
(0.867266 0 0)
(0.867657 0 0)
(0.868047 0 0)
(0.868437 0 0)
(0.868826 0 0)
(0.869215 0 0)
(0.869603 0 0)
(0.86999 0 0)
(0.870377 0 0)
(0.870764 0 0)
(0.87115 0 0)
(0.871535 0 0)
(0.87192 0 0)
(0.872304 0 0)
(0.872688 0 0)
(0.873071 0 0)
(0.873454 0 0)
(0.873836 0 0)
(0.874217 0 0)
(0.874599 0 0)
(0.874979 0 0)
(0.875359 0 0)
(0.875739 0 0)
(0.876117 0 0)
(0.876496 0 0)
(0.876874 0 0)
(0.877251 0 0)
(0.877628 0 0)
(0.878004 0 0)
(0.87838 0 0)
(0.878755 0 0)
(0.879129 0 0)
(0.879503 0 0)
(0.879877 0 0)
(0.88025 0 0)
(0.880622 0 0)
(0.880994 0 0)
(0.881365 0 0)
(0.881736 0 0)
(0.882106 0 0)
(0.882476 0 0)
(0.882845 0 0)
(0.883214 0 0)
(0.883582 0 0)
(0.883949 0 0)
(0.884316 0 0)
(0.884683 0 0)
(0.885049 0 0)
(0.885414 0 0)
(0.885779 0 0)
(0.886143 0 0)
(0.886507 0 0)
(0.88687 0 0)
(0.887232 0 0)
(0.887594 0 0)
(0.887956 0 0)
(0.888317 0 0)
(0.888677 0 0)
(0.889037 0 0)
(0.889396 0 0)
(0.889755 0 0)
(0.890113 0 0)
(0.890471 0 0)
(0.890828 0 0)
(0.891185 0 0)
(0.891541 0 0)
(0.891896 0 0)
(0.892251 0 0)
(0.892605 0 0)
(0.892959 0 0)
(0.893313 0 0)
(0.893665 0 0)
(0.894017 0 0)
(0.894369 0 0)
(0.89472 0 0)
(0.895071 0 0)
(0.895421 0 0)
(0.89577 0 0)
(0.896119 0 0)
(0.896467 0 0)
(0.896815 0 0)
(0.897162 0 0)
(0.897509 0 0)
(0.897855 0 0)
(0.8982 0 0)
(0.898545 0 0)
(0.89889 0 0)
(0.899234 0 0)
(0.899577 0 0)
(0.89992 0 0)
(0.900262 0 0)
(0.900603 0 0)
(0.900945 0 0)
(0.901285 0 0)
(0.901625 0 0)
(0.901964 0 0)
(0.902303 0 0)
(0.902642 0 0)
(0.902979 0 0)
(0.903317 0 0)
(0.903653 0 0)
(0.903989 0 0)
(0.904325 0 0)
(0.90466 0 0)
(0.904994 0 0)
(0.905328 0 0)
(0.905661 0 0)
(0.905994 0 0)
(0.906326 0 0)
(0.906658 0 0)
(0.906989 0 0)
(0.907319 0 0)
(0.907649 0 0)
(0.907979 0 0)
(0.908308 0 0)
(0.908636 0 0)
(0.908963 0 0)
(0.909291 0 0)
(0.909617 0 0)
(0.909943 0 0)
(0.910269 0 0)
(0.910594 0 0)
(0.910918 0 0)
(0.911242 0 0)
(0.911565 0 0)
(0.911887 0 0)
(0.91221 0 0)
(0.912531 0 0)
(0.912852 0 0)
(0.913172 0 0)
(0.913492 0 0)
(0.913811 0 0)
(0.91413 0 0)
(0.914448 0 0)
(0.914766 0 0)
(0.915083 0 0)
(0.915399 0 0)
(0.915715 0 0)
(0.916031 0 0)
(0.916345 0 0)
(0.916659 0 0)
(0.916973 0 0)
(0.917286 0 0)
(0.917599 0 0)
(0.917911 0 0)
(0.918222 0 0)
(0.918533 0 0)
(0.918843 0 0)
(0.919153 0 0)
(0.919462 0 0)
(0.91977 0 0)
(0.920078 0 0)
(0.920385 0 0)
(0.920692 0 0)
(0.920999 0 0)
(0.921304 0 0)
(0.921609 0 0)
(0.921914 0 0)
(0.922218 0 0)
(0.922521 0 0)
(0.922824 0 0)
(0.923126 0 0)
(0.923428 0 0)
(0.923729 0 0)
(0.92403 0 0)
(0.92433 0 0)
(0.924629 0 0)
(0.924928 0 0)
(0.925226 0 0)
(0.925524 0 0)
(0.925821 0 0)
(0.926118 0 0)
(0.926414 0 0)
(0.926709 0 0)
(0.927004 0 0)
(0.927298 0 0)
(0.927592 0 0)
(0.927885 0 0)
(0.928178 0 0)
(0.92847 0 0)
(0.928761 0 0)
(0.929052 0 0)
(0.929342 0 0)
(0.929632 0 0)
(0.929921 0 0)
(0.93021 0 0)
(0.930498 0 0)
(0.930785 0 0)
(0.931072 0 0)
(0.931358 0 0)
(0.931644 0 0)
(0.931929 0 0)
(0.932213 0 0)
(0.932497 0 0)
(0.932781 0 0)
(0.933063 0 0)
(0.933346 0 0)
(0.933627 0 0)
(0.933908 0 0)
(0.934189 0 0)
(0.934469 0 0)
(0.934748 0 0)
(0.935027 0 0)
(0.935305 0 0)
(0.935583 0 0)
(0.93586 0 0)
(0.936136 0 0)
(0.936412 0 0)
(0.936687 0 0)
(0.936962 0 0)
(0.937236 0 0)
(0.93751 0 0)
(0.937783 0 0)
(0.938055 0 0)
(0.938327 0 0)
(0.938598 0 0)
(0.938869 0 0)
(0.939139 0 0)
(0.939409 0 0)
(0.939678 0 0)
(0.939946 0 0)
(0.940214 0 0)
(0.940481 0 0)
(0.940748 0 0)
(0.941014 0 0)
(0.941279 0 0)
(0.941544 0 0)
(0.941808 0 0)
(0.942072 0 0)
(0.942335 0 0)
(0.942598 0 0)
(0.94286 0 0)
(0.943121 0 0)
(0.943382 0 0)
(0.943642 0 0)
(0.943902 0 0)
(0.944161 0 0)
(0.944419 0 0)
(0.944677 0 0)
(0.944935 0 0)
(0.945191 0 0)
(0.945448 0 0)
(0.945703 0 0)
(0.945958 0 0)
(0.946212 0 0)
(0.946466 0 0)
(0.94672 0 0)
(0.946972 0 0)
(0.947224 0 0)
(0.947476 0 0)
(0.947727 0 0)
(0.947977 0 0)
(0.948227 0 0)
(0.948476 0 0)
(0.948724 0 0)
(0.948972 0 0)
(0.94922 0 0)
(0.949467 0 0)
(0.949713 0 0)
(0.949958 0 0)
(0.950203 0 0)
(0.950448 0 0)
(0.950692 0 0)
(0.950935 0 0)
(0.951178 0 0)
(0.95142 0 0)
(0.951661 0 0)
(0.951902 0 0)
(0.952143 0 0)
(0.952382 0 0)
(0.952622 0 0)
(0.95286 0 0)
(0.953098 0 0)
(0.953336 0 0)
(0.953573 0 0)
(0.953809 0 0)
(0.954044 0 0)
(0.954279 0 0)
(0.954514 0 0)
(0.954748 0 0)
(0.954981 0 0)
(0.955214 0 0)
(0.955446 0 0)
(0.955677 0 0)
(0.955908 0 0)
(0.956139 0 0)
(0.956369 0 0)
(0.956598 0 0)
(0.956826 0 0)
(0.957054 0 0)
(0.957282 0 0)
(0.957508 0 0)
(0.957735 0 0)
(0.95796 0 0)
(0.958185 0 0)
(0.95841 0 0)
(0.958634 0 0)
(0.958857 0 0)
(0.95908 0 0)
(0.959302 0 0)
(0.959523 0 0)
(0.959744 0 0)
(0.959964 0 0)
(0.960184 0 0)
(0.960403 0 0)
(0.960622 0 0)
(0.96084 0 0)
(0.961057 0 0)
(0.961274 0 0)
(0.96149 0 0)
(0.961705 0 0)
(0.96192 0 0)
(0.962135 0 0)
(0.962349 0 0)
(0.962562 0 0)
(0.962774 0 0)
(0.962986 0 0)
(0.963198 0 0)
(0.963409 0 0)
(0.963619 0 0)
(0.963828 0 0)
(0.964037 0 0)
(0.964246 0 0)
(0.964454 0 0)
(0.964661 0 0)
(0.964868 0 0)
(0.965074 0 0)
(0.965279 0 0)
(0.965484 0 0)
(0.965688 0 0)
(0.965892 0 0)
(0.966095 0 0)
(0.966297 0 0)
(0.966499 0 0)
(0.966701 0 0)
(0.966901 0 0)
(0.967101 0 0)
(0.967301 0 0)
(0.9675 0 0)
(0.967698 0 0)
(0.967896 0 0)
(0.968093 0 0)
(0.96829 0 0)
(0.968485 0 0)
(0.968681 0 0)
(0.968875 0 0)
(0.96907 0 0)
(0.969263 0 0)
(0.969456 0 0)
(0.969648 0 0)
(0.96984 0 0)
(0.970031 0 0)
(0.970222 0 0)
(0.970412 0 0)
(0.970601 0 0)
(0.97079 0 0)
(0.970978 0 0)
(0.971165 0 0)
(0.971352 0 0)
(0.971539 0 0)
(0.971725 0 0)
(0.97191 0 0)
(0.972094 0 0)
(0.972278 0 0)
(0.972462 0 0)
(0.972644 0 0)
(0.972826 0 0)
(0.973008 0 0)
(0.973189 0 0)
(0.973369 0 0)
(0.973549 0 0)
(0.973728 0 0)
(0.973907 0 0)
(0.974085 0 0)
(0.974262 0 0)
(0.974439 0 0)
(0.974615 0 0)
(0.97479 0 0)
(0.974965 0 0)
(0.97514 0 0)
(0.975313 0 0)
(0.975487 0 0)
(0.975659 0 0)
(0.975831 0 0)
(0.976002 0 0)
(0.976173 0 0)
(0.976343 0 0)
(0.976513 0 0)
(0.976682 0 0)
(0.97685 0 0)
(0.977018 0 0)
(0.977185 0 0)
(0.977351 0 0)
(0.977517 0 0)
(0.977683 0 0)
(0.977847 0 0)
(0.978011 0 0)
(0.978175 0 0)
(0.978338 0 0)
(0.9785 0 0)
(0.978662 0 0)
(0.978823 0 0)
(0.978983 0 0)
(0.979143 0 0)
(0.979302 0 0)
(0.979461 0 0)
(0.979619 0 0)
(0.979777 0 0)
(0.979933 0 0)
(0.98009 0 0)
(0.980245 0 0)
(0.9804 0 0)
(0.980555 0 0)
(0.980709 0 0)
(0.980862 0 0)
(0.981014 0 0)
(0.981166 0 0)
(0.981318 0 0)
(0.981469 0 0)
(0.981619 0 0)
(0.981768 0 0)
(0.981917 0 0)
(0.982066 0 0)
(0.982214 0 0)
(0.982361 0 0)
(0.982507 0 0)
(0.982653 0 0)
(0.982799 0 0)
(0.982943 0 0)
(0.983088 0 0)
(0.983231 0 0)
(0.983374 0 0)
(0.983516 0 0)
(0.983658 0 0)
(0.983799 0 0)
(0.98394 0 0)
(0.984079 0 0)
(0.984219 0 0)
(0.984357 0 0)
(0.984496 0 0)
(0.984633 0 0)
(0.98477 0 0)
(0.984906 0 0)
(0.985042 0 0)
(0.985177 0 0)
(0.985311 0 0)
(0.985445 0 0)
(0.985578 0 0)
(0.985711 0 0)
(0.985843 0 0)
(0.985974 0 0)
(0.986105 0 0)
(0.986235 0 0)
(0.986365 0 0)
(0.986494 0 0)
(0.986622 0 0)
(0.98675 0 0)
(0.986877 0 0)
(0.987003 0 0)
(0.987129 0 0)
(0.987255 0 0)
(0.987379 0 0)
(0.987503 0 0)
(0.987627 0 0)
(0.98775 0 0)
(0.987872 0 0)
(0.987994 0 0)
(0.988115 0 0)
(0.988235 0 0)
(0.988355 0 0)
(0.988474 0 0)
(0.988593 0 0)
(0.988711 0 0)
(0.988828 0 0)
(0.988945 0 0)
(0.989061 0 0)
(0.989177 0 0)
(0.989291 0 0)
(0.989406 0 0)
(0.989519 0 0)
(0.989633 0 0)
(0.989745 0 0)
(0.989857 0 0)
(0.989968 0 0)
(0.990079 0 0)
(0.990189 0 0)
(0.990298 0 0)
(0.990407 0 0)
(0.990515 0 0)
(0.990623 0 0)
(0.99073 0 0)
(0.990836 0 0)
(0.990942 0 0)
(0.991047 0 0)
(0.991152 0 0)
(0.991256 0 0)
(0.991359 0 0)
(0.991462 0 0)
(0.991564 0 0)
(0.991666 0 0)
(0.991766 0 0)
(0.991867 0 0)
(0.991966 0 0)
(0.992065 0 0)
(0.992164 0 0)
(0.992262 0 0)
(0.992359 0 0)
(0.992455 0 0)
(0.992551 0 0)
(0.992647 0 0)
(0.992742 0 0)
(0.992836 0 0)
(0.992929 0 0)
(0.993022 0 0)
(0.993115 0 0)
(0.993206 0 0)
(0.993297 0 0)
(0.993388 0 0)
(0.993478 0 0)
(0.993567 0 0)
(0.993656 0 0)
(0.993744 0 0)
(0.993831 0 0)
(0.993918 0 0)
(0.994004 0 0)
(0.99409 0 0)
(0.994175 0 0)
(0.994259 0 0)
(0.994343 0 0)
(0.994426 0 0)
(0.994508 0 0)
(0.99459 0 0)
(0.994671 0 0)
(0.994752 0 0)
(0.994832 0 0)
(0.994912 0 0)
(0.99499 0 0)
(0.995069 0 0)
(0.995146 0 0)
(0.995223 0 0)
(0.9953 0 0)
(0.995375 0 0)
(0.99545 0 0)
(0.995525 0 0)
(0.995599 0 0)
(0.995672 0 0)
(0.995745 0 0)
(0.995817 0 0)
(0.995888 0 0)
(0.995959 0 0)
(0.996029 0 0)
(0.996099 0 0)
(0.996168 0 0)
(0.996236 0 0)
(0.996304 0 0)
(0.996371 0 0)
(0.996438 0 0)
(0.996504 0 0)
(0.996569 0 0)
(0.996634 0 0)
(0.996698 0 0)
(0.996761 0 0)
(0.996824 0 0)
(0.996886 0 0)
(0.996948 0 0)
(0.997009 0 0)
(0.997069 0 0)
(0.997129 0 0)
(0.997188 0 0)
(0.997247 0 0)
(0.997305 0 0)
(0.997362 0 0)
(0.997419 0 0)
(0.997475 0 0)
(0.99753 0 0)
(0.997585 0 0)
(0.99764 0 0)
(0.997693 0 0)
(0.997746 0 0)
(0.997799 0 0)
(0.99785 0 0)
(0.997902 0 0)
(0.997952 0 0)
(0.998002 0 0)
(0.998051 0 0)
(0.9981 0 0)
(0.998148 0 0)
(0.998196 0 0)
(0.998242 0 0)
(0.998289 0 0)
(0.998334 0 0)
(0.998379 0 0)
(0.998424 0 0)
(0.998467 0 0)
(0.998511 0 0)
(0.998553 0 0)
(0.998595 0 0)
(0.998636 0 0)
(0.998677 0 0)
(0.998717 0 0)
(0.998757 0 0)
(0.998795 0 0)
(0.998834 0 0)
(0.998871 0 0)
(0.998908 0 0)
(0.998945 0 0)
(0.99898 0 0)
(0.999016 0 0)
(0.99905 0 0)